ITEM: TIMESTEP
     0
ITEM: NUMBER OF ATOMS
 26040
ITEM: BOX BOUNDS pp pp pp
 -0.29999E+02   0.29999E+02
 -0.29999E+02   0.29999E+02
 -0.69741E+02   0.69741E+02
ITEM: ATOMS id element x y z vx vy vz fx fy fz
     1  Al  -0.29999E+02  -0.29999E+02  -0.69741E+02  -0.24416E+01   0.73906E+00  -0.29323E+01  -0.11328E-10   0.31641E+02  -0.24950E+04
     2  Al  -0.27999E+02  -0.27999E+02  -0.69741E+02   0.26478E+01   0.59926E+00  -0.21562E+00  -0.50914E+03   0.88645E+02  -0.17077E+04
     3  Al  -0.29999E+02  -0.27999E+02  -0.67741E+02   0.27563E+01   0.25588E+01  -0.82333E+00  -0.16919E-10  -0.61305E+00  -0.93098E+03
     4  Al  -0.27999E+02  -0.29999E+02  -0.67741E+02  -0.24897E+01  -0.13293E+01   0.24942E+01  -0.42004E+01   0.30513E-01  -0.92215E+03
     5  Al  -0.25999E+02  -0.29999E+02  -0.69741E+02  -0.83776E+00  -0.31715E+00  -0.16381E+01  -0.33837E+03   0.36198E+03  -0.16424E+04
     6  Al  -0.23999E+02  -0.27999E+02  -0.69741E+02  -0.24056E+01   0.25135E-01   0.51728E+00  -0.58020E+03   0.31175E+03   0.16894E+04
     7  Al  -0.25999E+02  -0.27999E+02  -0.67741E+02   0.13709E+01  -0.25058E+00  -0.27228E+01  -0.11802E+02  -0.27646E+01  -0.90798E+03
     8  Al  -0.23999E+02  -0.29999E+02  -0.67741E+02   0.70361E+00   0.10640E+01  -0.23568E+01  -0.35902E+01  -0.11827E+02  -0.90601E+03
     9  Al  -0.21999E+02  -0.29999E+02  -0.69741E+02   0.96496E+00  -0.12760E+01  -0.44272E+01   0.86524E+02   0.68531E+03  -0.75514E+03
    10  Al  -0.20000E+02  -0.27999E+02  -0.69741E+02  -0.21173E+01   0.10655E+01  -0.24260E+01   0.79603E+03   0.25686E+03   0.86043E+03
    11  Al  -0.21999E+02  -0.27999E+02  -0.67741E+02  -0.16999E+01   0.90083E+00  -0.16594E+01   0.24996E+01  -0.45243E+01  -0.88878E+03
    12  Al  -0.20000E+02  -0.29999E+02  -0.67741E+02  -0.46126E+00  -0.60362E+00   0.33652E+01   0.52142E+01  -0.93062E+01  -0.90964E+03
    13  Al  -0.18000E+02  -0.29999E+02  -0.69741E+02  -0.29578E+01  -0.12575E+01   0.27695E+01   0.29143E+03   0.22875E+03  -0.19950E+04
    14  Al  -0.16000E+02  -0.27999E+02  -0.69741E+02   0.15993E+01  -0.14257E+01   0.28241E+01   0.26050E+03   0.60653E+02  -0.21411E+04
    15  Al  -0.18000E+02  -0.27999E+02  -0.67741E+02  -0.55496E+00   0.16086E+01  -0.31544E+01   0.11139E+02  -0.19480E+01  -0.91673E+03
    16  Al  -0.16000E+02  -0.29999E+02  -0.67741E+02   0.43778E+01  -0.36067E+01  -0.37312E+01   0.22771E+01   0.19493E+01  -0.92457E+03
    17  Al  -0.14000E+02  -0.29999E+02  -0.69741E+02  -0.15458E+01  -0.85798E+00   0.26144E+01  -0.10548E+03   0.54652E+02  -0.24383E+04
    18  Al  -0.12000E+02  -0.27999E+02  -0.69741E+02   0.87915E+00  -0.78332E+01   0.34765E+00  -0.71665E+03   0.13421E+03  -0.10068E+04
    19  Al  -0.14000E+02  -0.27999E+02  -0.67741E+02   0.15832E+01  -0.19157E+01  -0.13413E+01  -0.46523E+01  -0.76674E+00  -0.92922E+03
    20  Al  -0.12000E+02  -0.29999E+02  -0.67741E+02   0.13382E+01   0.70549E+00   0.77389E+00  -0.54854E+01  -0.28049E+01  -0.91850E+03
    21  Al  -0.99998E+01  -0.29999E+02  -0.69741E+02   0.92128E+00  -0.29443E+00  -0.45823E+01  -0.32375E+03   0.50097E+03  -0.12654E+04
    22  Al  -0.79998E+01  -0.27999E+02  -0.69741E+02   0.57827E+01  -0.29147E+01   0.39180E+00  -0.21322E+03   0.34384E+03   0.21721E+04
    23  Al  -0.99998E+01  -0.27999E+02  -0.67741E+02  -0.68483E+00   0.12321E+01   0.40424E+00  -0.10390E+02  -0.35620E+01  -0.89942E+03
    24  Al  -0.79998E+01  -0.29999E+02  -0.67741E+02   0.18394E+01  -0.82034E+00  -0.98783E-01  -0.12700E+01  -0.13206E+02  -0.90394E+03
    25  Al  -0.59999E+01  -0.29999E+02  -0.69741E+02  -0.36921E+01   0.12335E+01  -0.50311E+01   0.23570E+03   0.61799E+03  -0.94264E+03
    26  Al  -0.39999E+01  -0.27999E+02  -0.69741E+02   0.20068E+01   0.37496E+01  -0.30283E-02   0.83151E+03   0.19325E+03  -0.10508E+03
    27  Al  -0.59999E+01  -0.27999E+02  -0.67741E+02  -0.14872E+00  -0.17201E+01   0.21619E+01   0.71038E+01  -0.41785E+01  -0.89259E+03
    28  Al  -0.39999E+01  -0.29999E+02  -0.67741E+02  -0.19075E+01   0.24429E+01  -0.21910E+00   0.58662E+01  -0.61086E+01  -0.91408E+03
    29  Al  -0.20000E+01  -0.29999E+02  -0.69741E+02   0.59405E+00  -0.11481E+00  -0.87224E+00   0.20662E+03   0.12220E+03  -0.22691E+04
    30  Al   0.00000E+00  -0.27999E+02  -0.69741E+02   0.10882E+01   0.45731E+01   0.84982E+00  -0.38395E-11   0.51297E+02  -0.22865E+04
    31  Al  -0.20000E+01  -0.27999E+02  -0.67741E+02  -0.52488E+01  -0.46344E+01   0.12329E+01   0.85973E+01  -0.12444E+01  -0.92420E+03
    32  Al   0.00000E+00  -0.29999E+02  -0.67741E+02   0.38992E+01  -0.18361E+01  -0.26382E+01  -0.24800E-11   0.26344E+01  -0.92543E+03
    33  Al   0.20000E+01  -0.29999E+02  -0.69741E+02  -0.65337E+00  -0.23381E+01   0.15557E+01  -0.20662E+03   0.12220E+03  -0.22691E+04
    34  Al   0.39999E+01  -0.27999E+02  -0.69741E+02  -0.19765E+01  -0.12636E+01   0.67281E+00  -0.83151E+03   0.19325E+03  -0.10508E+03
    35  Al   0.20000E+01  -0.27999E+02  -0.67741E+02  -0.20918E+01  -0.20718E+01   0.17815E+01  -0.85973E+01  -0.12444E+01  -0.92420E+03
    36  Al   0.39999E+01  -0.29999E+02  -0.67741E+02  -0.18713E+01   0.12806E+01   0.67033E+00  -0.58662E+01  -0.61086E+01  -0.91408E+03
    37  Al   0.59999E+01  -0.29999E+02  -0.69741E+02   0.25416E+01  -0.82727E+00  -0.88879E+00  -0.23570E+03   0.61799E+03  -0.94264E+03
    38  Al   0.79998E+01  -0.27999E+02  -0.69741E+02  -0.37895E+01  -0.43723E+01  -0.14927E+01   0.21322E+03   0.34384E+03   0.21721E+04
    39  Al   0.59999E+01  -0.27999E+02  -0.67741E+02   0.41597E+00   0.22508E+00   0.46354E+01  -0.71038E+01  -0.41785E+01  -0.89259E+03
    40  Al   0.79998E+01  -0.29999E+02  -0.67741E+02   0.32183E+01  -0.28758E+01   0.11079E+01   0.12700E+01  -0.13206E+02  -0.90394E+03
    41  Al   0.99998E+01  -0.29999E+02  -0.69741E+02   0.22393E+01   0.13158E+01   0.18944E+01   0.32375E+03   0.50097E+03  -0.12654E+04
    42  Al   0.12000E+02  -0.27999E+02  -0.69741E+02  -0.27425E+01   0.69084E+00  -0.28721E+01   0.71665E+03   0.13421E+03  -0.10068E+04
    43  Al   0.99998E+01  -0.27999E+02  -0.67741E+02   0.40953E+00  -0.16961E+01   0.61664E+00   0.10390E+02  -0.35620E+01  -0.89942E+03
    44  Al   0.12000E+02  -0.29999E+02  -0.67741E+02  -0.73529E+00  -0.21904E+01   0.97543E+00   0.54854E+01  -0.28049E+01  -0.91850E+03
    45  Al   0.14000E+02  -0.29999E+02  -0.69741E+02   0.27260E+00  -0.22738E+01  -0.27158E+01   0.10548E+03   0.54652E+02  -0.24383E+04
    46  Al   0.16000E+02  -0.27999E+02  -0.69741E+02   0.19912E+01   0.10643E+01   0.16740E+01  -0.26050E+03   0.60653E+02  -0.21411E+04
    47  Al   0.14000E+02  -0.27999E+02  -0.67741E+02   0.36184E+01   0.14746E+01   0.22652E+01   0.46523E+01  -0.76674E+00  -0.92922E+03
    48  Al   0.16000E+02  -0.29999E+02  -0.67741E+02   0.76274E+00   0.44028E+01   0.27842E+01  -0.22771E+01   0.19493E+01  -0.92457E+03
    49  Al   0.18000E+02  -0.29999E+02  -0.69741E+02  -0.58409E+00  -0.11530E+01  -0.16405E+01  -0.29143E+03   0.22875E+03  -0.19950E+04
    50  Al   0.20000E+02  -0.27999E+02  -0.69741E+02  -0.35187E-01   0.22191E+01  -0.95410E+00  -0.79603E+03   0.25686E+03   0.86043E+03
    51  Al   0.18000E+02  -0.27999E+02  -0.67741E+02  -0.29649E+01   0.10726E+01   0.27502E+01  -0.11139E+02  -0.19480E+01  -0.91673E+03
    52  Al   0.20000E+02  -0.29999E+02  -0.67741E+02   0.35154E+01   0.19417E+01  -0.26922E+00  -0.52142E+01  -0.93062E+01  -0.90964E+03
    53  Al   0.21999E+02  -0.29999E+02  -0.69741E+02  -0.23075E+00  -0.11349E+01   0.32935E+01  -0.86524E+02   0.68531E+03  -0.75514E+03
    54  Al   0.23999E+02  -0.27999E+02  -0.69741E+02   0.55793E+00   0.18940E+01  -0.38767E+01   0.58020E+03   0.31175E+03   0.16894E+04
    55  Al   0.21999E+02  -0.27999E+02  -0.67741E+02  -0.20439E+01   0.33546E+01  -0.32491E+01  -0.24996E+01  -0.45243E+01  -0.88878E+03
    56  Al   0.23999E+02  -0.29999E+02  -0.67741E+02   0.23406E+01  -0.41827E+01  -0.47242E+00   0.35902E+01  -0.11827E+02  -0.90601E+03
    57  Al   0.25999E+02  -0.29999E+02  -0.69741E+02   0.20328E+00  -0.21942E+01  -0.97746E+00   0.33837E+03   0.36198E+03  -0.16424E+04
    58  Al   0.27999E+02  -0.27999E+02  -0.69741E+02   0.20507E+01   0.48334E+00  -0.15536E+01   0.50914E+03   0.88645E+02  -0.17077E+04
    59  Al   0.25999E+02  -0.27999E+02  -0.67741E+02   0.72224E+00  -0.16652E+00  -0.47606E+01   0.11802E+02  -0.27646E+01  -0.90798E+03
    60  Al   0.27999E+02  -0.29999E+02  -0.67741E+02   0.17570E+00   0.29908E+01  -0.28775E+01   0.42004E+01   0.30513E-01  -0.92215E+03
    61  Al  -0.29999E+02  -0.25999E+02  -0.69741E+02   0.51265E+00  -0.43189E+01  -0.27921E+01  -0.12070E-10  -0.10271E+03  -0.24141E+04
    62  Al  -0.27999E+02  -0.23999E+02  -0.69741E+02  -0.35140E+01   0.38170E+00   0.10746E+01  -0.22721E+02   0.10739E+03  -0.22345E+04
    63  Al  -0.29999E+02  -0.23999E+02  -0.67741E+02  -0.75587E+00  -0.22891E+01   0.31513E+01  -0.18355E-10  -0.78316E+01  -0.91849E+03
    64  Al  -0.27999E+02  -0.25999E+02  -0.67741E+02   0.10062E+00   0.57096E+00  -0.15997E+01  -0.68500E+01   0.22933E+01  -0.92387E+03
    65  Al  -0.25999E+02  -0.25999E+02  -0.69741E+02   0.41656E+01   0.67057E+00   0.48301E+01  -0.62499E+03  -0.42574E+03  -0.79025E+03
    66  Al  -0.23999E+02  -0.23999E+02  -0.69741E+02  -0.45700E+00   0.22491E+01  -0.33933E+01  -0.60495E+02  -0.30499E+03  -0.19753E+04
    67  Al  -0.25999E+02  -0.23999E+02  -0.67741E+02   0.16229E+01  -0.31530E+01  -0.95498E-01  -0.11203E+01   0.22688E+01  -0.91650E+03
    68  Al  -0.23999E+02  -0.25999E+02  -0.67741E+02   0.37987E+01  -0.37955E+01  -0.46016E+01  -0.57841E+01   0.10190E+02  -0.89769E+03
    69  Al  -0.21999E+02  -0.25999E+02  -0.69741E+02  -0.19224E+01   0.87592E+00   0.32028E+01   0.15920E+03  -0.76109E+03   0.88800E+03
    70  Al  -0.20000E+02  -0.23999E+02  -0.69741E+02   0.12143E+01   0.11713E+01   0.22642E+01   0.75788E+02  -0.21567E+03  -0.20550E+04
    71  Al  -0.21999E+02  -0.23999E+02  -0.67741E+02  -0.13704E+01  -0.49566E+01  -0.20422E+01   0.30218E+00   0.10315E+02  -0.91394E+03
    72  Al  -0.20000E+02  -0.25999E+02  -0.67741E+02  -0.22499E+00   0.49699E+00   0.47997E+00   0.84265E+01   0.85078E+01  -0.90341E+03
    73  Al  -0.18000E+02  -0.25999E+02  -0.69741E+02  -0.49509E+00   0.12158E+01   0.16047E+01   0.54044E+03  -0.29246E+03  -0.14592E+04
    74  Al  -0.16000E+02  -0.23999E+02  -0.69741E+02   0.74932E+00  -0.43900E+01   0.63806E+01   0.77049E+01   0.17276E+03  -0.22482E+04
    75  Al  -0.18000E+02  -0.23999E+02  -0.67741E+02  -0.82980E+01   0.15023E+01  -0.78110E+00   0.88204E+00  -0.15069E+01  -0.91743E+03
    76  Al  -0.16000E+02  -0.25999E+02  -0.67741E+02  -0.95051E+00   0.20739E+01   0.29931E+01   0.37140E+01   0.10258E+01  -0.92794E+03
    77  Al  -0.14000E+02  -0.25999E+02  -0.69741E+02  -0.33500E+01  -0.26337E+01  -0.13007E+01  -0.19742E+03  -0.12431E+03  -0.23052E+04
    78  Al  -0.12000E+02  -0.23999E+02  -0.69741E+02  -0.50059E+00   0.55692E+01  -0.12143E+01  -0.45579E+02   0.99776E+01  -0.21995E+04
    79  Al  -0.14000E+02  -0.23999E+02  -0.67741E+02  -0.27017E+01   0.24490E+00  -0.29851E+01  -0.31787E+00  -0.70399E+01  -0.91840E+03
    80  Al  -0.12000E+02  -0.25999E+02  -0.67741E+02   0.26098E+01   0.18697E+01  -0.26326E+01  -0.89166E+01   0.41819E+01  -0.91776E+03
    81  Al  -0.99998E+01  -0.25999E+02  -0.69741E+02  -0.21428E+00   0.29212E+01   0.47495E+01  -0.59650E+03  -0.56813E+03  -0.76873E+02
    82  Al  -0.79998E+01  -0.23999E+02  -0.69741E+02   0.36844E+01   0.18072E+01   0.25087E+01  -0.23164E+02  -0.35475E+03  -0.19259E+04
    83  Al  -0.99998E+01  -0.23999E+02  -0.67741E+02  -0.27934E+01   0.22291E+01   0.64322E+00  -0.11118E+01   0.59372E+01  -0.91545E+03
    84  Al  -0.79998E+01  -0.25999E+02  -0.67741E+02   0.12487E+01  -0.44790E+00  -0.17547E+01  -0.20447E+01   0.11123E+02  -0.89448E+03
    85  Al  -0.59999E+01  -0.25999E+02  -0.69741E+02  -0.31036E+01  -0.16293E+00   0.30939E+01   0.43381E+03  -0.69015E+03   0.53346E+03
    86  Al  -0.39999E+01  -0.23999E+02  -0.69741E+02   0.13826E+01   0.26206E+01   0.34624E+01   0.67668E+02  -0.10403E+03  -0.21371E+04
    87  Al  -0.59999E+01  -0.23999E+02  -0.67741E+02  -0.20304E+01  -0.23223E+01  -0.57776E+00   0.81800E+00   0.87709E+01  -0.91450E+03
    88  Al  -0.39999E+01  -0.25999E+02  -0.67741E+02  -0.20010E+01   0.79782E-02   0.12947E+01   0.95028E+01   0.63819E+01  -0.91054E+03
    89  Al  -0.20000E+01  -0.25999E+02  -0.69741E+02   0.21556E+01   0.28456E+01   0.99491E+00   0.38506E+03  -0.18861E+03  -0.19813E+04
    90  Al   0.00000E+00  -0.23999E+02  -0.69741E+02   0.29863E+00   0.89374E+00  -0.25620E+01  -0.13510E-11   0.19574E+03  -0.22510E+04
    91  Al  -0.20000E+01  -0.23999E+02  -0.67741E+02   0.95725E+00  -0.57995E+00  -0.16501E+01   0.60365E+00  -0.48031E+01  -0.91807E+03
    92  Al   0.00000E+00  -0.25999E+02  -0.67741E+02   0.14741E+01   0.23329E+01   0.21243E+01  -0.20495E-11   0.57665E+00  -0.92936E+03
    93  Al   0.20000E+01  -0.25999E+02  -0.69741E+02   0.14844E+00   0.83862E+00   0.11576E+00  -0.38506E+03  -0.18861E+03  -0.19813E+04
    94  Al   0.39999E+01  -0.23999E+02  -0.69741E+02  -0.58318E+00  -0.19688E+01   0.12314E+01  -0.67668E+02  -0.10403E+03  -0.21371E+04
    95  Al   0.20000E+01  -0.23999E+02  -0.67741E+02   0.13307E+00   0.15591E+01  -0.14349E+01  -0.60365E+00  -0.48031E+01  -0.91807E+03
    96  Al   0.39999E+01  -0.25999E+02  -0.67741E+02  -0.14789E+01   0.14685E+01   0.40104E+01  -0.95028E+01   0.63819E+01  -0.91054E+03
    97  Al   0.59999E+01  -0.25999E+02  -0.69741E+02  -0.55011E+00   0.50447E+01   0.42943E+01  -0.43381E+03  -0.69015E+03   0.53346E+03
    98  Al   0.79998E+01  -0.23999E+02  -0.69741E+02   0.29446E+01   0.80582E+00   0.10369E+01   0.23164E+02  -0.35475E+03  -0.19259E+04
    99  Al   0.59999E+01  -0.23999E+02  -0.67741E+02  -0.62453E+01   0.17539E+01   0.30235E+00  -0.81800E+00   0.87709E+01  -0.91450E+03
   100  Al   0.79998E+01  -0.25999E+02  -0.67741E+02  -0.34200E+01  -0.15755E+01  -0.19990E+01   0.20447E+01   0.11123E+02  -0.89448E+03
   101  Al   0.99998E+01  -0.25999E+02  -0.69741E+02   0.10647E+01   0.40667E+01  -0.38760E+01   0.59650E+03  -0.56813E+03  -0.76873E+02
   102  Al   0.12000E+02  -0.23999E+02  -0.69741E+02   0.30067E+00  -0.48127E+00  -0.27479E+00   0.45579E+02   0.99776E+01  -0.21995E+04
   103  Al   0.99998E+01  -0.23999E+02  -0.67741E+02  -0.14900E+00  -0.15978E+01  -0.12229E+01   0.11118E+01   0.59372E+01  -0.91545E+03
   104  Al   0.12000E+02  -0.25999E+02  -0.67741E+02  -0.41276E+01   0.27884E+01   0.20655E+00   0.89166E+01   0.41819E+01  -0.91776E+03
   105  Al   0.14000E+02  -0.25999E+02  -0.69741E+02  -0.24277E+01  -0.29448E+01  -0.15827E+01   0.19742E+03  -0.12431E+03  -0.23052E+04
   106  Al   0.16000E+02  -0.23999E+02  -0.69741E+02   0.49053E+01   0.41739E+01  -0.10413E+01  -0.77049E+01   0.17276E+03  -0.22482E+04
   107  Al   0.14000E+02  -0.23999E+02  -0.67741E+02   0.17140E+01   0.27959E+01   0.46940E+00   0.31787E+00  -0.70399E+01  -0.91840E+03
   108  Al   0.16000E+02  -0.25999E+02  -0.67741E+02  -0.64163E+00  -0.76330E+00   0.43702E+01  -0.37140E+01   0.10258E+01  -0.92794E+03
   109  Al   0.18000E+02  -0.25999E+02  -0.69741E+02  -0.22077E+01  -0.25375E+01  -0.18721E+01  -0.54044E+03  -0.29246E+03  -0.14592E+04
   110  Al   0.20000E+02  -0.23999E+02  -0.69741E+02   0.30255E+01  -0.12051E+01  -0.12134E+01  -0.75788E+02  -0.21567E+03  -0.20550E+04
   111  Al   0.18000E+02  -0.23999E+02  -0.67741E+02  -0.32100E+01  -0.56934E+00   0.15511E+00  -0.88204E+00  -0.15069E+01  -0.91743E+03
   112  Al   0.20000E+02  -0.25999E+02  -0.67741E+02  -0.23210E+01   0.13963E+01  -0.12718E+01  -0.84265E+01   0.85078E+01  -0.90341E+03
   113  Al   0.21999E+02  -0.25999E+02  -0.69741E+02  -0.34283E+01  -0.18890E+01  -0.10996E+00  -0.15920E+03  -0.76109E+03   0.88800E+03
   114  Al   0.23999E+02  -0.23999E+02  -0.69741E+02  -0.15540E+01   0.21241E+01   0.13155E+01   0.60495E+02  -0.30499E+03  -0.19753E+04
   115  Al   0.21999E+02  -0.23999E+02  -0.67741E+02  -0.20955E+01  -0.14080E+01  -0.85969E+00  -0.30218E+00   0.10315E+02  -0.91394E+03
   116  Al   0.23999E+02  -0.25999E+02  -0.67741E+02   0.20915E+01  -0.74815E+00  -0.16344E+01   0.57841E+01   0.10190E+02  -0.89769E+03
   117  Al   0.25999E+02  -0.25999E+02  -0.69741E+02   0.42360E+01   0.54735E+00   0.31389E+01   0.62499E+03  -0.42574E+03  -0.79025E+03
   118  Al   0.27999E+02  -0.23999E+02  -0.69741E+02  -0.12143E+01   0.18478E+01   0.11416E+01   0.22721E+02   0.10739E+03  -0.22345E+04
   119  Al   0.25999E+02  -0.23999E+02  -0.67741E+02   0.10387E+01   0.23791E+00   0.62818E+00   0.11203E+01   0.22688E+01  -0.91650E+03
   120  Al   0.27999E+02  -0.25999E+02  -0.67741E+02  -0.13006E+01  -0.19804E+01   0.20996E+00   0.68500E+01   0.22933E+01  -0.92387E+03
   121  Al  -0.29999E+02  -0.21999E+02  -0.69741E+02   0.26029E+00   0.33393E+00  -0.41236E+01  -0.10378E-10   0.78614E+03   0.81401E+02
   122  Al  -0.27999E+02  -0.20000E+02  -0.69741E+02  -0.12532E+01  -0.14646E+01   0.11344E+01   0.73641E+03   0.54483E-01   0.14620E+04
   123  Al  -0.29999E+02  -0.20000E+02  -0.67741E+02  -0.50461E+01  -0.10857E+01  -0.36217E+01  -0.17126E-10  -0.12961E+00  -0.88746E+03
   124  Al  -0.27999E+02  -0.21999E+02  -0.67741E+02   0.12556E+01  -0.14119E+01  -0.43904E+00   0.60273E+01  -0.10736E+02  -0.90386E+03
   125  Al  -0.25999E+02  -0.21999E+02  -0.69741E+02  -0.16822E+01   0.29098E+01  -0.31843E+01   0.46021E+03   0.35582E+03  -0.15001E+04
   126  Al  -0.23999E+02  -0.20000E+02  -0.69741E+02   0.40379E+00   0.63279E+00   0.54263E+01   0.40088E+03   0.60891E+00  -0.19271E+04
   127  Al  -0.25999E+02  -0.20000E+02  -0.67741E+02   0.20989E+01   0.25183E+01  -0.12469E+01   0.11990E+02  -0.87806E-01  -0.91214E+03
   128  Al  -0.23999E+02  -0.21999E+02  -0.67741E+02  -0.72491E-01   0.18792E+00   0.45366E+01   0.45006E+01  -0.58566E+00  -0.92516E+03
   129  Al  -0.21999E+02  -0.21999E+02  -0.69741E+02   0.18357E+01  -0.30166E+01   0.13786E+01  -0.76860E+02   0.91895E+02  -0.24561E+04
   130  Al  -0.20000E+02  -0.20000E+02  -0.69741E+02   0.17006E+01   0.19899E+01  -0.30450E+01  -0.64242E+03   0.49086E+00  -0.13342E+04
   131  Al  -0.21999E+02  -0.20000E+02  -0.67741E+02   0.27614E+01   0.32294E+01   0.10979E+01  -0.24301E+01   0.86118E-02  -0.93071E+03
   132  Al  -0.20000E+02  -0.21999E+02  -0.67741E+02  -0.25223E+01  -0.12640E+01   0.35684E+01  -0.67079E+01  -0.26682E+01  -0.92093E+03
   133  Al  -0.18000E+02  -0.21999E+02  -0.69741E+02  -0.11837E+01   0.97367E+00   0.48406E-01  -0.48497E+03   0.50346E+03  -0.95967E+03
   134  Al  -0.16000E+02  -0.20000E+02  -0.69741E+02   0.39868E+01   0.68636E+00  -0.18226E+01  -0.42627E+03  -0.10850E-01   0.21681E+04
   135  Al  -0.18000E+02  -0.20000E+02  -0.67741E+02   0.15793E+01  -0.22425E+01   0.24276E+01  -0.11614E+02  -0.11422E+00  -0.90308E+03
   136  Al  -0.16000E+02  -0.21999E+02  -0.67741E+02  -0.81243E-01  -0.24628E-01   0.14504E+01  -0.33290E+01  -0.12442E+02  -0.90003E+03
   137  Al  -0.14000E+02  -0.21999E+02  -0.69741E+02  -0.33576E+01   0.53170E+00   0.80456E-01   0.23711E+03   0.74817E+03  -0.58738E+02
   138  Al  -0.12000E+02  -0.20000E+02  -0.69741E+02  -0.48388E+00   0.62141E+01   0.82782E+00   0.86567E+03   0.16139E+00   0.50161E+03
   139  Al  -0.14000E+02  -0.20000E+02  -0.67741E+02  -0.89668E+00   0.17400E+01   0.10621E+01   0.50276E+01  -0.12663E+00  -0.88946E+03
   140  Al  -0.12000E+02  -0.21999E+02  -0.67741E+02  -0.28257E+01  -0.23190E+01  -0.71494E+01   0.75978E+01  -0.82309E+01  -0.90932E+03
   141  Al  -0.99998E+01  -0.21999E+02  -0.69741E+02   0.45038E+01   0.31608E+01   0.16053E+01   0.36329E+03   0.22862E+03  -0.19629E+04
   142  Al  -0.79998E+01  -0.20000E+02  -0.69741E+02   0.59250E+00  -0.44253E+01   0.15973E+00   0.13521E+03   0.68673E+00  -0.22279E+04
   143  Al  -0.99998E+01  -0.20000E+02  -0.67741E+02  -0.72964E+00   0.43449E+01   0.14770E+00   0.10302E+02  -0.43197E-01  -0.92064E+03
   144  Al  -0.79998E+01  -0.21999E+02  -0.67741E+02  -0.10233E+01  -0.19749E+01   0.11894E+01   0.15705E+01   0.55856E+00  -0.92746E+03
   145  Al  -0.59999E+01  -0.21999E+02  -0.69741E+02   0.40749E+01   0.29612E+01   0.41876E+01  -0.22747E+03   0.13820E+03  -0.22897E+04
   146  Al  -0.39999E+01  -0.20000E+02  -0.69741E+02  -0.14629E+01   0.37725E+01   0.16654E+01  -0.81743E+03   0.32469E+00  -0.49013E+03
   147  Al  -0.59999E+01  -0.20000E+02  -0.67741E+02   0.99162E-01  -0.39698E+01  -0.95361E+00  -0.69069E+01   0.74103E-03  -0.92717E+03
   148  Al  -0.39999E+01  -0.21999E+02  -0.67741E+02  -0.21182E+01   0.20906E+01  -0.29123E+01  -0.78192E+01  -0.53742E+01  -0.91537E+03
   149  Al  -0.20000E+01  -0.21999E+02  -0.69741E+02  -0.98055E+00  -0.40339E+01  -0.41161E+01  -0.41083E+03   0.64493E+03  -0.43940E+03
   150  Al   0.00000E+00  -0.20000E+02  -0.69741E+02   0.35426E+01  -0.19834E-02  -0.65801E+00  -0.20696E-11  -0.33999E-01   0.24287E+04
   151  Al  -0.20000E+01  -0.20000E+02  -0.67741E+02   0.41843E+00   0.30435E+01  -0.27538E+01  -0.91662E+01  -0.12106E+00  -0.89504E+03
   152  Al   0.00000E+00  -0.21999E+02  -0.67741E+02  -0.18154E+01  -0.30064E+01  -0.22421E+01  -0.31855E-11  -0.13041E+02  -0.89863E+03
   153  Al   0.20000E+01  -0.21999E+02  -0.69741E+02  -0.18177E+01  -0.52037E+01  -0.18294E+01   0.41083E+03   0.64493E+03  -0.43940E+03
   154  Al   0.39999E+01  -0.20000E+02  -0.69741E+02  -0.25941E+01  -0.94045E+00  -0.87421E+00   0.81743E+03   0.32469E+00  -0.49013E+03
   155  Al   0.20000E+01  -0.20000E+02  -0.67741E+02  -0.17745E+01   0.28539E+01  -0.75232E+00   0.91662E+01  -0.12106E+00  -0.89504E+03
   156  Al   0.39999E+01  -0.21999E+02  -0.67741E+02  -0.94650E+00   0.26149E-01  -0.21582E+01   0.78192E+01  -0.53742E+01  -0.91537E+03
   157  Al   0.59999E+01  -0.21999E+02  -0.69741E+02   0.30691E+01   0.11670E+01   0.36359E+00   0.22747E+03   0.13820E+03  -0.22897E+04
   158  Al   0.79998E+01  -0.20000E+02  -0.69741E+02  -0.19592E+01  -0.25618E+00   0.10205E+01  -0.13521E+03   0.68673E+00  -0.22279E+04
   159  Al   0.59999E+01  -0.20000E+02  -0.67741E+02   0.22382E+01   0.31113E+01  -0.95724E+00   0.69069E+01   0.74103E-03  -0.92717E+03
   160  Al   0.79998E+01  -0.21999E+02  -0.67741E+02  -0.76383E+00   0.16735E+01   0.11798E+01  -0.15705E+01   0.55856E+00  -0.92746E+03
   161  Al   0.99998E+01  -0.21999E+02  -0.69741E+02  -0.23188E+01   0.11252E+01  -0.53995E+01  -0.36329E+03   0.22862E+03  -0.19629E+04
   162  Al   0.12000E+02  -0.20000E+02  -0.69741E+02   0.18543E+01  -0.14759E+01   0.20038E+01  -0.86567E+03   0.16139E+00   0.50161E+03
   163  Al   0.99998E+01  -0.20000E+02  -0.67741E+02   0.18333E+00   0.32115E+01  -0.46540E+00  -0.10302E+02  -0.43197E-01  -0.92064E+03
   164  Al   0.12000E+02  -0.21999E+02  -0.67741E+02  -0.43706E+00   0.38149E+01  -0.12311E+01  -0.75978E+01  -0.82309E+01  -0.90932E+03
   165  Al   0.14000E+02  -0.21999E+02  -0.69741E+02   0.23493E+01   0.10682E+01   0.26398E+01  -0.23711E+03   0.74817E+03  -0.58738E+02
   166  Al   0.16000E+02  -0.20000E+02  -0.69741E+02  -0.17611E+01   0.30300E+01   0.11457E+01   0.42627E+03  -0.10850E-01   0.21681E+04
   167  Al   0.14000E+02  -0.20000E+02  -0.67741E+02  -0.45541E-01   0.28790E+01   0.55377E+00  -0.50276E+01  -0.12663E+00  -0.88946E+03
   168  Al   0.16000E+02  -0.21999E+02  -0.67741E+02   0.10517E+01   0.83994E+00   0.11485E+01   0.33290E+01  -0.12442E+02  -0.90003E+03
   169  Al   0.18000E+02  -0.21999E+02  -0.69741E+02   0.29297E+01  -0.15818E+01  -0.44602E+00   0.48497E+03   0.50346E+03  -0.95967E+03
   170  Al   0.20000E+02  -0.20000E+02  -0.69741E+02  -0.49434E+00  -0.43617E+00   0.45159E+01   0.64242E+03   0.49086E+00  -0.13342E+04
   171  Al   0.18000E+02  -0.20000E+02  -0.67741E+02   0.62667E+01  -0.41189E+00   0.16132E+01   0.11614E+02  -0.11422E+00  -0.90308E+03
   172  Al   0.20000E+02  -0.21999E+02  -0.67741E+02   0.21709E+01   0.26010E+01   0.22497E+01   0.67079E+01  -0.26682E+01  -0.92093E+03
   173  Al   0.21999E+02  -0.21999E+02  -0.69741E+02   0.63430E+00  -0.77528E+00  -0.12901E+00   0.76860E+02   0.91895E+02  -0.24561E+04
   174  Al   0.23999E+02  -0.20000E+02  -0.69741E+02  -0.14782E+01  -0.20540E+01   0.15732E+01  -0.40088E+03   0.60891E+00  -0.19271E+04
   175  Al   0.21999E+02  -0.20000E+02  -0.67741E+02  -0.96150E+00  -0.33814E+01  -0.27530E+01   0.24301E+01   0.86118E-02  -0.93071E+03
   176  Al   0.23999E+02  -0.21999E+02  -0.67741E+02   0.10381E+01  -0.50299E-01   0.12846E+01  -0.45006E+01  -0.58566E+00  -0.92516E+03
   177  Al   0.25999E+02  -0.21999E+02  -0.69741E+02  -0.48613E+01  -0.21144E+01   0.28704E+01  -0.46021E+03   0.35582E+03  -0.15001E+04
   178  Al   0.27999E+02  -0.20000E+02  -0.69741E+02   0.92583E+00   0.23904E+00  -0.59308E+01  -0.73641E+03   0.54483E-01   0.14620E+04
   179  Al   0.25999E+02  -0.20000E+02  -0.67741E+02   0.12092E+01  -0.44543E+01  -0.84260E+00  -0.11990E+02  -0.87806E-01  -0.91214E+03
   180  Al   0.27999E+02  -0.21999E+02  -0.67741E+02  -0.11488E+01   0.17325E+01  -0.34064E+00  -0.60273E+01  -0.10736E+02  -0.90386E+03
   181  Al  -0.29999E+02  -0.18000E+02  -0.69741E+02  -0.11427E+01   0.33182E+01  -0.57721E+00  -0.88831E-11  -0.78667E+03   0.81143E+02
   182  Al  -0.27999E+02  -0.16000E+02  -0.69741E+02   0.14398E+00  -0.20231E+01  -0.39114E+00  -0.23533E+02  -0.10798E+03  -0.22352E+04
   183  Al  -0.29999E+02  -0.16000E+02  -0.67741E+02   0.64058E+00   0.26787E+01   0.62433E+01  -0.16186E-10   0.79136E+01  -0.91842E+03
   184  Al  -0.27999E+02  -0.18000E+02  -0.67741E+02  -0.65401E+00   0.12656E+01  -0.25543E+01   0.59516E+01   0.10699E+02  -0.90379E+03
   185  Al  -0.25999E+02  -0.18000E+02  -0.69741E+02  -0.35173E+01   0.14463E+01   0.43130E+01   0.45936E+03  -0.35580E+03  -0.14996E+04
   186  Al  -0.23999E+02  -0.16000E+02  -0.69741E+02   0.16526E+01   0.15903E+00   0.56712E+00  -0.61127E+02   0.30424E+03  -0.19747E+04
   187  Al  -0.25999E+02  -0.16000E+02  -0.67741E+02  -0.10681E+01  -0.26685E+01   0.28659E+01  -0.13368E+01  -0.21466E+01  -0.91653E+03
   188  Al  -0.23999E+02  -0.18000E+02  -0.67741E+02  -0.37800E+00   0.36117E+00   0.26923E+01   0.43524E+01   0.70804E+00  -0.92517E+03
   189  Al  -0.21999E+02  -0.18000E+02  -0.69741E+02   0.10080E+00   0.15832E+01   0.62893E-01  -0.76678E+02  -0.91527E+02  -0.24550E+04
   190  Al  -0.20000E+02  -0.16000E+02  -0.69741E+02   0.12271E+01   0.50231E+00  -0.12300E+01   0.76771E+02   0.21495E+03  -0.20546E+04
   191  Al  -0.21999E+02  -0.16000E+02  -0.67741E+02  -0.16931E+01  -0.36532E+01  -0.14025E+01   0.33094E+00  -0.10243E+02  -0.91402E+03
   192  Al  -0.20000E+02  -0.18000E+02  -0.67741E+02  -0.20103E+01  -0.24079E+01  -0.86770E+00  -0.65157E+01   0.27645E+01  -0.92093E+03
   193  Al  -0.18000E+02  -0.18000E+02  -0.69741E+02  -0.23038E+01   0.26606E+01   0.71550E+00  -0.48419E+03  -0.50362E+03  -0.95944E+03
   194  Al  -0.16000E+02  -0.16000E+02  -0.69741E+02  -0.25211E+01  -0.30404E+01  -0.42170E+01   0.81340E+01  -0.17332E+03  -0.22491E+04
   195  Al  -0.18000E+02  -0.16000E+02  -0.67741E+02  -0.17904E+01  -0.23052E+01   0.25023E+00   0.10937E+01   0.16313E+01  -0.91739E+03
   196  Al  -0.16000E+02  -0.18000E+02  -0.67741E+02   0.21271E+01  -0.18954E+01  -0.23635E+01  -0.32732E+01   0.12380E+02  -0.89996E+03
   197  Al  -0.14000E+02  -0.18000E+02  -0.69741E+02   0.96207E+00   0.83978E+00   0.82191E+00   0.23683E+03  -0.74865E+03  -0.58938E+02
   198  Al  -0.12000E+02  -0.16000E+02  -0.69741E+02   0.10118E+01   0.43165E+00   0.27243E+01  -0.46694E+02  -0.10606E+02  -0.21998E+04
   199  Al  -0.14000E+02  -0.16000E+02  -0.67741E+02   0.41671E+01   0.95745E+00   0.45836E+01  -0.40479E+00   0.71345E+01  -0.91832E+03
   200  Al  -0.12000E+02  -0.18000E+02  -0.67741E+02   0.28468E+01   0.26701E+01   0.15589E+01   0.74768E+01   0.82386E+01  -0.90927E+03
   201  Al  -0.99998E+01  -0.18000E+02  -0.69741E+02  -0.18736E+00   0.98409E+00  -0.46945E+01   0.36254E+03  -0.22843E+03  -0.19622E+04
   202  Al  -0.79998E+01  -0.16000E+02  -0.69741E+02  -0.10561E+01  -0.12508E+01   0.19750E+01  -0.23388E+02   0.35399E+03  -0.19251E+04
   203  Al  -0.99998E+01  -0.16000E+02  -0.67741E+02   0.28557E+01   0.22208E+01   0.97070E+00  -0.12999E+01  -0.58257E+01  -0.91551E+03
   204  Al  -0.79998E+01  -0.18000E+02  -0.67741E+02   0.43341E+01   0.11991E+01   0.21557E+01   0.15278E+01  -0.40620E+00  -0.92746E+03
   205  Al  -0.59999E+01  -0.18000E+02  -0.69741E+02   0.41352E+00  -0.28583E+01  -0.31758E+01  -0.22696E+03  -0.13790E+03  -0.22887E+04
   206  Al  -0.39999E+01  -0.16000E+02  -0.69741E+02  -0.23988E+01  -0.90921E+00   0.13133E+01   0.68834E+02   0.10337E+03  -0.21371E+04
   207  Al  -0.59999E+01  -0.16000E+02  -0.67741E+02  -0.14451E+01   0.86123E+00  -0.12980E+01   0.93641E+00  -0.86839E+01  -0.91459E+03
   208  Al  -0.39999E+01  -0.18000E+02  -0.67741E+02  -0.26359E+01  -0.19227E+01   0.20653E+01  -0.76451E+01   0.54332E+01  -0.91533E+03
   209  Al  -0.20000E+01  -0.18000E+02  -0.69741E+02  -0.10432E+00   0.75907E+00   0.26549E+01  -0.41027E+03  -0.64528E+03  -0.43942E+03
   210  Al   0.00000E+00  -0.16000E+02  -0.69741E+02  -0.36681E+01  -0.18259E+01  -0.11090E+01  -0.14502E-11  -0.19630E+03  -0.22521E+04
   211  Al  -0.20000E+01  -0.16000E+02  -0.67741E+02   0.68144E+00  -0.27946E+01  -0.96235E+00   0.78093E+00   0.49199E+01  -0.91799E+03
   212  Al   0.00000E+00  -0.18000E+02  -0.67741E+02   0.12006E+01   0.74019E+00   0.28378E+01  -0.18344E-11   0.12965E+02  -0.89857E+03
   213  Al   0.20000E+01  -0.18000E+02  -0.69741E+02   0.65277E+00  -0.20742E+01  -0.11940E+01   0.41027E+03  -0.64528E+03  -0.43942E+03
   214  Al   0.39999E+01  -0.16000E+02  -0.69741E+02   0.42730E+01   0.16054E+00   0.76383E+01  -0.68834E+02   0.10337E+03  -0.21371E+04
   215  Al   0.20000E+01  -0.16000E+02  -0.67741E+02   0.23902E+01  -0.14156E+01   0.33877E+01  -0.78093E+00   0.49199E+01  -0.91799E+03
   216  Al   0.39999E+01  -0.18000E+02  -0.67741E+02   0.32699E+01   0.12229E+01   0.27643E+01   0.76451E+01   0.54332E+01  -0.91533E+03
   217  Al   0.59999E+01  -0.18000E+02  -0.69741E+02   0.16123E+01   0.81764E+01   0.14618E+01   0.22696E+03  -0.13790E+03  -0.22887E+04